LAMMPS data file via write_data, version 2 Aug 2023, timestep = 2600500, units = real

15264 atoms
12 atom types
11648 bonds
11 bond types
11008 angles
14 angle types
4992 dihedrals
12 dihedral types
576 impropers
3 improper types

-0.5998742499096499 67.59987424992357 xlo xhi
-0.5998742499096499 67.59987424992357 ylo yhi
-0.5998742499096499 67.59987424992357 zlo zhi

Masses

1      57.3720551 #Zn
2      11.0107002 #C2
3      11.9987593 #N1
4      2.0079401  #H2
5      2.0079401  #H3
6      12.0107002 #C1
7      8.9868799  #C3
8      2.0079401  #He
9      2.0079401  #Ne
10     15         #CH3
11     15         #O
12     2          #H

Atoms # full

6972 2324 12 0.435 3.9232656540103896 3.0387496064401027 11.756015130699787 1 0 0
600 200 12 0.435 2.5593222829452884 4.686267785253882 12.673796183489639 1 0 1
598 200 11 -0.7 3.4379701769812065 4.292629655474176 12.913531378454703 1 0 1
342 114 12 0.435 3.6246891855181165 7.145321103394196 9.995945185449619 1 1 1
6224 2075 10 0.265 10.80643086768011 15.357724807202706 12.195723311833476 0 0 0
6970 2324 11 -0.7 4.194894966920914 2.2342215847533815 11.21957983365819 1 0 0
1648 550 11 -0.7 2.099868219145116 4.002765857185195 7.238255157591957 0 0 0
1649 550 10 0.265 1.2504930470040097 5.050663865693839 6.860733991535748 0 0 0
1650 550 12 0.435 1.980078884597882 3.1992166529158217 6.674639223357814 0 0 0
6783 2261 12 0.435 0.9964274515430787 2.189924840371722 3.976230183241525 0 0 0
6781 2261 11 -0.7 1.0076380455440812 2.3186321864320494 4.924765761123424 0 0 0
2503 835 11 -0.7 3.67920557162567 2.6310934145707314 2.3379956032792437 0 1 0
2505 835 12 0.435 4.008018794725697 2.8043140517471015 1.5007447966738432 0 1 0
2504 835 10 0.265 4.082911023474137 3.647710996466529 3.2807794875028855 0 1 0
3261 1087 12 0.435 3.370559606074827 4.829939688396729 8.606734598633137 1 0 1
3259 1087 11 -0.7 4.027335456168008 5.4769765573715254 8.96731301463919 1 0 1
12076 4026 11 -0.7 5.6789785274219255 4.439183365895807 0.1688692857405776 0 1 -2
3260 1087 10 0.265 5.308025556508744 5.081615003114419 8.448396203953935 1 0 1
8442 2814 12 0.435 0.24138002110521195 4.3328277469799374 11.749957454519096 1 1 0
12078 4026 12 0.435 5.763195386867643 4.975747304981243 0.9084937954736784 0 1 -2
10623 3541 12 0.435 5.903002141768742 2.5741873167166975 10.904843925173424 1 1 0
8440 2814 11 -0.7 0.8421895722456549 5.063276721138583 11.543877234084853 1 1 0
8441 2814 10 0.265 -0.14221169053903232 6.031040003246049 11.083166074378093 1 1 0
11076 3692 12 0.435 1.7811340077717241 1.5705149094908954 1.9793401637204622 1 1 1
11075 3692 10 0.265 0.3863984380212525 2.6577200968374406 1.2649733063563375 1 1 1
11074 3692 11 -0.7 0.8825716207310557 1.5502557199728673 2.048274251845382 1 1 1
10621 3541 11 -0.7 6.809065597554823 3.0643085655003173 10.749661255746108 1 1 0
6971 2324 10 0.265 3.2414601493691126 2.102581694035229 10.246311150087555 1 0 0
6782 2261 10 0.265 0.5820951997366199 1.021084402809551 5.425611207775586 0 0 0
4106 1369 10 0.265 0.9288633287928827 7.13745605902643 2.96839940807119 -1 1 0
10622 3541 10 0.265 7.5942521376495655 2.0229030039323987 10.28876323442355 1 1 0
12181 4061 11 -0.7 5.359168599059709 6.861028307534348 1.8154771617210965 0 0 1
826 276 11 -0.7 29.535670653810012 11.764364122896527 0.5329379431683862 1 0 1
340 114 11 -0.7 3.6417540749064505 8.068818172120881 10.380881579535256 1 1 1
12182 4061 10 0.265 5.936340008147864 7.63443690933399 2.8446751076567627 0 0 1
4105 1369 11 -0.7 0.3040118532872591 7.925647197656579 3.982235561994141 -1 1 0
8864 2955 10 0.265 4.562689137736944 -0.37197615421519525 3.91572572970535 0 1 0
7233 2411 12 0.435 7.938025822675071 4.321232077837343 12.100793868106324 0 1 1
7661 2554 10 0.265 11.322158256817898 1.2065192057248237 -0.17138260166500072 1 0 0
10385 3462 10 0.265 9.419797752442259 4.692642175299191 2.689839537553437 1 1 1
10384 3462 11 -0.7 10.745590094702822 4.1947454126946475 2.8703140782578904 1 1 1
10386 3462 12 0.435 11.162990809843862 4.189642952940247 3.7281969892416567 1 1 1
7231 2411 11 -0.7 8.75782009933994 4.522156368661763 12.485856524045772 0 1 1
1408 470 11 -0.7 14.160365805669075 4.642043389408795 2.2474546253907137 1 0 0
3568 1190 11 -0.7 30.19013361817538 13.426340216114756 5.865936357281157 0 1 0
9350 3117 10 0.265 10.972424841727 0.5308933596604546 3.762985283153224 -1 0 0
14156 4097 4 0.1141 13.391341954818484 8.042652380537127 9.92246785502756 0 0 1
6113 2038 10 0.265 13.010218887279901 5.046127604616035 8.560135101295204 0 0 1
6112 2038 11 -0.7 12.30444980085311 5.977821464514667 7.716133711421334 0 0 1
6114 2038 12 0.435 12.853854919589665 6.994162863464154 7.6935461027937215 0 0 1
7593 2531 12 0.435 11.172043383271618 5.011875238724568 6.47773202305722 0 1 1
14158 4097 9 -0.4203 13.181495876021811 7.641977716390182 7.735779112107025 0 0 1
14155 4097 3 0 13.477921105122023 8.081349081202033 7.802981361242974 0 0 1
5019 1673 12 0.435 9.855604776242481 5.791323980464487 11.212288842200119 2 0 0
7592 2531 10 0.265 10.435048456188605 3.2027156819788347 7.128856747549758 0 1 1
7591 2531 11 -0.7 10.776227514074018 4.108392623266055 6.107043283874852 0 1 1
5041 1681 11 -0.7 12.388284658684794 2.389722181355439 12.376442674386109 0 1 1
5042 1681 10 0.265 12.17189378341523 3.3249623782566395 11.304700148670559 0 1 1
8687 2896 10 0.265 33.19025417350748 0.276928483470411 12.723070572716066 0 0 1
5017 1673 11 -0.7 10.35356804504001 6.514082416333175 10.705192974765598 2 0 0
5018 1673 10 0.265 9.328187316721696 6.880914765929885 9.773206582031039 2 0 0
1409 470 10 0.265 14.40392032972297 4.723261507146426 3.7068788525913257 1 0 0
2819 940 10 0.265 15.490016823482492 7.541590905299389 11.956542572983869 0 1 1
9245 3082 10 0.265 12.378967207493274 7.900501709075039 1.609900033269376 -1 1 2
14153 4097 5 0.1381 14.291721694162884 7.815253009460781 5.042648282942887 0 0 1
1410 470 12 0.435 14.316281048318384 3.742339801103892 2.0373249764143013 1 0 0
6852 2284 12 0.435 15.2521307749593 0.2956722435385498 8.57138814649056 0 0 1
2818 940 11 -0.7 15.845892802068093 6.598877842923036 10.95596149909156 0 1 1
2820 940 12 0.435 15.621272534408686 5.7500034334996215 11.23051443091297 0 1 1
9657 3219 12 0.435 13.732209451252904 1.6977354691484015 0.7181374000824173 0 1 1
9655 3219 11 -0.7 14.523067271091078 1.9766545739286225 1.2309202439970914 0 1 1
7662 2554 12 0.435 11.921204853266614 -0.1619674950453574 1.1900081274509504 1 0 0
9009 3003 12 0.435 3.943593328535033 15.987454618259395 1.3448992075764024 0 1 0
6850 2284 11 -0.7 15.43484911999716 0.8184868962230729 9.36517021151393 0 0 1
7660 2554 11 -0.7 12.36480207573077 0.31943927891016133 0.4182625135898035 1 0 0
956 319 10 0.265 10.506629286286906 -0.25525619288434376 12.300188072781143 0 1 1
1876 626 11 -0.7 13.685400088165043 0.21980744472696612 11.473387979414733 0 1 1
9020 3007 10 0.265 9.889822168888951 7.5982007160029905 5.212028755495238 0 0 -1
1878 626 12 0.435 14.264193970589913 0.20430613319206925 10.714467981704512 0 1 1
9656 3219 10 0.265 15.451868237963083 0.8738299817395656 1.3507769156586238 0 1 1
8684 2895 10 0.265 15.957616558317444 3.977382234151678 12.995909117929894 0 0 0
6908 2303 10 0.265 16.528556886596405 5.791182097185842 7.6523986333295575 0 1 1
6605 2202 10 0.265 18.878317682123516 3.268280683984475 2.092869309953015 0 0 1
6606 2202 12 0.435 19.020713302403696 3.6772788052376963 4.036941488087302 0 0 1
6604 2202 11 -0.7 18.630418713314473 2.953371308112205 3.482300396843847 0 0 1
7309 2437 11 -0.7 19.864229653841427 5.016557195478268 5.20039396484291 0 0 0
7311 2437 12 0.435 19.872190746050684 6.009545329546779 5.161572896068766 0 0 0
13968 4097 3 0 18.465425743406563 6.726918325455045 -0.1838520434812725 0 1 0
4591 1531 11 -0.7 22.866763046873928 3.2040770274478625 9.576998349191342 0 1 0
13966 4097 2 -0.06619999999999999 17.34122590828884 6.18251455505471 0.34287885726839434 0 1 0
4592 1531 10 0.265 23.821433715842886 2.4912799427311283 10.2832323841175 0 1 0
3691 1231 11 -0.7 32.383418989949035 15.070960935599771 10.486129298358815 0 1 -1
13389 4097 4 0.1141 20.10691243174924 1.0552688500766993 8.838105673607858 0 1 0
6851 2284 10 0.265 16.211127397166216 1.9008022000664904 8.784346471574889 0 0 1
4593 1531 12 0.435 22.286006605099683 2.461629180391112 8.8583514865425 0 1 0
13388 4097 3 0 21.927288193657823 1.5508234514738592 7.956727613239104 0 1 0
13391 4097 9 -0.4203 22.123388171982498 1.9737310131325765 8.31830833461115 0 1 0
13387 4097 2 -0.06619999999999999 20.83041458172692 0.8143531011007883 8.060003690252037 0 1 0
13381 4097 2 -0.06619999999999999 20.823440408550844 -0.26975468923556317 7.194354333693254 0 1 0
8255 2752 10 0.265 20.478074947886586 2.936567262206153 11.99520747903438 0 0 -1
150 50 12 0.435 21.307963134252557 4.917294577645557 1.6947060947291295 0 0 0
3822 1274 12 0.435 18.02290322530252 0.910663426409694 3.7303787229358685 1 0 -1
13383 4097 3 0 21.91829778462788 -0.033792241510043675 6.280792793741655 0 1 0
13380 4097 6 0.4375 22.580498064511104 1.0104420666470533 6.850309684453399 0 1 0
3820 1274 11 -0.7 17.69117340030315 0.07359900850932999 4.096049546076974 1 0 -1
8683 2895 11 -0.7 16.645336112681047 4.04852732545451 11.763506121856368 0 0 0
3821 1274 10 0.265 17.632295211166696 0.17664894761522598 5.577555332044959 1 0 -1
1025 342 10 0.265 19.400425735655272 6.651043305468064 10.54203115004252 0 1 0
8685 2895 12 0.435 17.3879701435073 3.386523735901271 11.819251787442877 0 0 0
7310 2437 10 0.265 20.074966583143677 4.664543115503583 6.598013309909044 0 0 0
1024 342 11 -0.7 20.062864960678585 7.776206354939408 11.172794023858694 0 1 0
1856 619 10 0.265 31.95053170111081 5.087578075199421 0.14676954641630593 0 0 1
2459 820 10 0.265 22.86808776306669 0.46322432284511494 0.41940047326500274 1 0 0
8254 2752 11 -0.7 19.09212113967803 2.6347496551907676 12.085919017526724 0 0 -1
148 50 11 -0.7 21.132827523296594 4.9302385959999615 0.7671992289409888 0 0 0
10668 3556 12 0.435 21.444450586327697 3.96218236020578 4.1059269897417545 1 1 1
10666 3556 11 -0.7 22.150287488459277 4.24863769042353 3.5645817098938273 1 1 1
13972 4097 2 -0.06619999999999999 17.327018002397452 6.407641822338926 1.677753097411028 0 1 0
2805 935 12 0.435 20.81840289117617 16.193445166552547 12.527397838319308 1 1 0
8256 2752 12 0.435 18.98231774378323 1.7815237020485573 12.548216751244212 0 0 -1
13382 4097 7 -0.4606 23.87327422448246 1.6113951661453692 6.264582802199144 0 1 0
149 50 10 0.265 22.318567145894622 4.379334180268765 0.2506834503959066 0 0 0
13392 4097 9 -0.4203 21.964629151644388 -0.4147258983434172 5.864184352835345 0 1 0
35 12 10 0.265 23.731279060361775 5.839240457276969 7.894695811959671 0 1 0
34 12 11 -0.7 24.272674025304603 5.589560555069367 9.223974446157765 0 1 0
36 12 12 0.435 23.62781120603684 5.0318303316201245 9.704067950457391 0 1 0
13385 4097 5 0.1381 24.69237130499274 0.8224957614831299 6.331209243735991 0 1 0
10667 3556 10 0.265 22.925752813888767 5.212736929790572 4.21319802193525 1 1 1
13386 4097 5 0.1381 24.148693315373734 2.545312278771431 6.688731799497074 0 1 0
13965 4097 6 0.4375 19.088117655166723 7.34673096448795 0.805570661838292 0 1 0
13976 4097 9 -0.4203 18.52170198942898 7.385202123515949 2.449047991730951 0 1 0
13973 4097 3 0 18.425793484921154 7.175673722992293 1.950034061280282 0 1 0
13970 4097 5 0.1381 20.580049252984654 8.428472551331913 1.777816340809081 0 1 0
1779 593 12 0.435 18.82603880358747 7.559456903416935 3.115256307175867 1 1 0
13969 4097 4 0.1141 16.61430056206045 5.672049667591249 -0.27941432582247316 0 1 0
13974 4097 4 0.1141 16.612463423523117 5.947809596673641 2.348643551850214 0 1 0
6907 2303 11 -0.7 16.38570293056794 7.163900911582439 7.915424219548325 0 1 1
6909 2303 12 0.435 16.18377611159288 7.282803456906702 8.868450029286464 0 1 1
13390 4097 5 0.1381 23.624622403708948 1.7497906547043203 5.2115903895198015 0 1 0
4274 1425 10 0.265 23.479139873194935 6.426971426119154 12.49674782914548 0 1 -1
88 30 11 -0.7 26.750434564217134 6.883247434371573 10.446559303211627 0 0 1
9202 3068 11 -0.7 17.42573679696214 12.963114706112483 12.657319702387722 0 0 0
9644 3215 10 0.265 26.64050266279437 2.9080919587142233 5.162250725392485 0 1 0
1188 396 12 0.435 28.72443372792708 2.8475072886916672 6.532673240218836 0 0 0
366 122 12 0.435 27.63200275126324 7.149940208712927 4.833929679367258 0 1 0
364 122 11 -0.7 27.331038255639008 6.195334625203207 4.251103922524297 0 1 0
365 122 10 0.265 27.177594003287666 6.586159985985808 2.836702581496989 0 1 0
2224 742 11 -0.7 -0.42265686647601985 12.244807585872323 2.5100583504979403 0 1 1
4683 1561 12 0.435 30.239542492103602 -0.3847539469155168 1.4501614708814594 0 1 0
1186 396 11 -0.7 29.331195134267215 2.329982846313505 7.188832492384427 0 0 0
1187 396 10 0.265 28.56117290451914 1.85682254714446 8.347973581658586 0 0 0
9645 3215 12 0.435 27.314111086368197 4.684576470460278 5.210065631282902 0 1 0
15262 4097 5 0.1381 25.688375288281485 7.171518723001307 6.4038813113756134 0 1 0
15258 4097 5 0.1381 25.567751239603425 8.136419829470427 7.952457682375502 0 1 0
9643 3215 11 -0.7 27.6228911213409 3.8317483173612574 5.603396767368401 0 1 0
8998 3000 11 -0.7 32.23760684451078 6.9428881929423 11.483296114945228 0 1 0
10113 3371 12 0.435 30.186330940984433 4.096940449140435 7.243021614883029 0 0 -1
5979 1993 12 0.435 30.963570547398938 1.4183330667193685 7.756393967622152 0 1 0
5978 1993 10 0.265 31.639842353099677 -0.10204860209981015 8.64672091140535 0 1 0
5977 1993 11 -0.7 31.78660499057695 1.2907543259151408 8.401691460228564 0 1 0
10111 3371 11 -0.7 30.499220170157418 4.909720238795542 7.412556664353629 0 0 -1
3724 1242 11 -0.7 28.082878052335627 8.441941535944421 12.453596637485713 0 1 0
10112 3371 10 0.265 29.398845896104508 5.790796450320614 7.315984237980942 0 0 -1
2217 739 12 0.435 32.26162074229596 0.03217379019733457 2.632562425261627 0 0 0
4682 1561 10 0.265 29.786444335812686 1.540545888160868 0.9684659279763715 0 1 0
1145 382 10 0.265 30.411690276458803 3.0334417217224514 11.567843701081893 0 1 1
4681 1561 11 -0.7 30.470714065292974 0.4822985293391826 1.7245546569199792 0 1 0
6281 2094 10 0.265 32.22204249060862 6.62686396990373 3.164360815968847 -1 0 0
4030 1344 11 -0.7 26.585753214630873 3.709342170819375 -0.041391606590518215 -1 -1 0
3693 1231 12 0.435 33.2794992999482 14.96719901382368 10.465517528354892 0 1 -1
90 30 12 0.435 25.783222471319988 6.77316566677333 10.074851169489314 0 0 1
89 30 10 0.265 27.423873014693523 5.583845015952818 10.27393495713864 0 0 1
9000 3000 12 0.435 31.88787080442562 6.037933725988039 11.378172320259306 0 1 0
12132 4044 12 0.435 31.658041908357102 13.635082295699693 11.401910180615097 -1 0 1
827 276 10 0.265 28.376394660876805 11.279489152949036 1.1576347869698118 1 0 1
9249 3083 12 0.435 16.087744746824704 15.205166315979927 -0.24180961363663353 1 0 0
3726 1242 12 0.435 27.940111056313157 7.9255193607218715 11.53559562992525 0 1 0
6141 2047 12 0.435 10.097494855249751 12.192903341959315 -0.06253046772007813 0 1 0
8999 3000 10 0.265 33.39450713561023 7.18430502053281 10.732118579218644 0 1 0
1144 382 11 -0.7 31.004896899022153 4.166642885182995 12.165015550600646 0 1 1
6812 2271 10 0.265 6.420746905333605 11.876911352907186 0.2046276506343433 1 0 0
2018 673 10 0.265 4.849980817380216 8.184198683691502 6.5746828596878615 1 0 0
3917 1306 10 0.265 6.25073795103263 13.614154981528719 11.287053870441689 1 0 0
4107 1369 12 0.435 0.6879914510921517 7.7003510282321574 4.888814627531935 -1 1 0
2017 673 11 -0.7 5.8292949583119915 8.989339109527181 5.9330266705328185 1 0 0
2019 673 12 0.435 6.587824356190512 9.170083040596763 6.492614207648382 1 0 0
8980 2994 11 -0.7 -0.36456723271143066 13.314575930483743 5.326961954775299 0 0 1
6811 2271 11 -0.7 6.214497711057338 10.778604462654382 1.1141115517697355 1 0 0
7668 2556 12 0.435 2.4428141235477003 9.369558426548503 11.25063776101352 1 -1 0
7667 2556 10 0.265 2.426247967651105 11.3599495106154 10.980872706135454 1 -1 0
9008 3003 10 0.265 5.299266752024809 15.423197509178745 -0.04505214477501783 0 1 0
7666 2556 11 -0.7 2.0151140562801775 10.177661067270707 11.689483560304424 1 -1 0
10654 3552 11 -0.7 27.45403948705774 12.978903041856075 6.786855114848872 0 -1 0
341 114 10 0.265 4.96237565340539 8.30108299005144 10.771030726058349 1 1 1
5909 1970 10 0.265 5.089595660923284 11.688409303758835 4.4489318489508145 1 0 0
1127 376 10 0.265 4.13181874542301 13.924798123123692 7.900273291521437 0 0 1
1126 376 11 -0.7 3.7266240907010824 14.866885282332781 8.848051492418087 0 0 1
5910 1970 12 0.435 6.543250855803199 11.606775145536897 5.577927586994447 1 0 0
5908 1970 11 -0.7 6.412621771703975 12.178182878525089 4.829062345653898 1 0 0
883 295 11 -0.7 7.200475655566292 14.943148623547087 2.9273444993314324 0 1 1
885 295 12 0.435 6.485082106910781 15.173404128703327 2.3108301908649693 0 1 1
884 295 10 0.265 6.87362915237588 15.6275063120538 4.169057389453672 0 1 1
688 230 11 -0.7 0.3966694490860533 8.151791801720618 6.715752997559985 0 0 1
689 230 10 0.265 0.8018172176681628 9.063122713233463 7.719047210577388 0 0 1
828 276 12 0.435 30.029885325420107 11.872780861919644 1.3962066600751037 1 0 1
12183 4061 12 0.435 4.821636009504412 7.467566405062415 1.2651508337687827 0 0 1
8190 2730 12 0.435 -0.30472764004487046 9.828268606540199 12.0569966496472 0 1 0
1655 552 10 0.265 7.754137979327256 12.441850604363957 7.579513776784115 0 0 0
8981 2994 10 0.265 0.7201346332347962 12.45829795523181 5.749608462526511 0 0 1
1325 442 10 0.265 0.025939898448814058 14.088874206369551 11.123591290376638 2 1 1
12711 4097 8 0.08840000000000001 9.072780160966204 12.49408539629911 1.918047876952266 1 0 0
3916 1306 11 -0.7 7.595122016686256 13.707515692776765 10.832874699917012 1 0 0
1128 376 12 0.435 3.848524724549346 15.759852904080478 8.454112354925416 0 0 1
7673 2558 10 0.265 32.74749089597446 9.405827638005924 0.36775558160392235 -1 1 0
3918 1306 12 0.435 7.924853819620889 12.777218540683018 10.681903334921675 1 0 0
10605 3535 12 0.435 30.837765070517833 13.096065904773612 4.041024034676203 1 1 0
9007 3003 11 -0.7 4.9403461345167745 15.91264531112028 1.2661178226461038 0 1 0
4031 1344 10 0.265 25.942458041241466 4.9068455225582035 -0.5910635967660495 -1 -1 0
5455 1819 11 -0.7 4.0416141158571985 9.02275099723273 0.32448188742886674 2 0 0
9195 3065 12 0.435 27.1324514052405 14.981726634713713 0.3813432323058931 1 1 1
13975 4097 5 0.1381 21.049237288680995 7.911744376340545 0.19010055899225925 0 1 0
6813 2271 12 0.435 5.431944665668061 10.367981454273107 0.776048084583031 1 0 0
6140 2047 10 0.265 10.873883626405062 14.073032745681585 -0.04181604771267955 0 1 0
5456 1819 10 0.265 2.6852128313076236 8.793834925650426 0.7043045295724677 2 0 0
2225 742 10 0.265 -0.08383916739096142 12.981485322232237 1.3520737925796475 0 1 1
14154 4097 2 -0.06619999999999999 13.645556205206589 8.659649550832901 9.059552826483253 0 0 1
14149 4097 7 -0.4606 13.980164130251715 8.839442362948754 5.386471953443104 0 0 1
14157 4097 5 0.1381 14.427282450267558 9.707606874770827 4.98851069470522 0 0 1
9021 3007 12 0.435 10.170018279139523 9.178035457083707 6.345930714753414 0 0 -1
9019 3007 11 -0.7 10.466573689188522 8.873563706492975 5.421009564666778 0 0 -1
1654 552 11 -0.7 7.9011529300589185 11.065905247872795 7.071173662187665 0 0 0
1656 552 12 0.435 8.785958867176902 10.772147312853852 7.227723625505696 0 0 0
12712 4097 8 0.08840000000000001 8.376363847837712 13.449918919013625 2.776134639419538 1 0 0
10656 3552 12 0.435 27.23991488058802 12.233935459726966 7.487428444805842 0 -1 0
15261 4097 4 0.1141 29.46944744671704 10.903621964506762 6.799206199138124 0 1 0
14152 4097 5 0.1381 12.912790349877978 8.88889983325466 5.199228591468612 0 0 1
9244 3082 11 -0.7 12.905483173169982 9.014314109106433 0.7877010119134075 -1 1 2
8945 2982 10 0.265 9.516039506157956 10.361670376412667 10.898978167841673 0 0 -1
14148 4097 2 -0.06619999999999999 14.434317642714984 9.796295721844462 8.881661432705554 0 0 1
14147 4097 6 0.4375 13.98448025292482 8.98876396616439 6.927134484539524 0 0 1
2906 969 10 0.265 11.343044889013372 11.907830434091954 7.135589873225158 1 0 0
12710 4097 8 0.08840000000000001 7.632067537955761 12.337106893547958 2.1626071499536392 1 0 0
14151 4097 4 0.1141 14.906929320941762 10.540076833973515 9.557267932919189 0 0 1
14150 4097 3 0 14.50389378871733 10.062839900916117 7.534173922411061 0 0 1
7283 2428 10 0.265 12.896654680200996 12.489793749906557 10.473058883263233 1 0 1
12709 4097 1 0.3536 8.412565355302187 12.579094650150038 2.537710711270511 1 0 0
12713 4097 8 0.08840000000000001 8.592887593304113 12.069894702758555 3.2464570719546813 1 0 0
7282 2428 11 -0.7 12.263064285960954 12.464073963504038 11.758985638045859 1 0 1
7779 2593 12 0.435 10.950806662172281 10.43780965354146 4.5228693372684665 0 0 0
14159 4097 9 -0.4203 14.759129720762123 10.535593509403165 7.329076767355621 0 0 1
7284 2428 12 0.435 11.341966233229817 12.770508102058082 11.672961273291207 1 0 1
2905 969 11 -0.7 10.947921216751899 10.717382974203424 7.772133391524404 1 0 0
8420 2807 10 0.265 16.028028066616976 15.043302056435271 8.29132109361246 -1 0 0
6225 2075 12 0.435 9.356739873882287 14.25909184261053 11.201257061862412 0 0 0
6223 2075 11 -0.7 10.338994867274456 14.275898948248331 11.325542021376933 0 0 0
2907 969 12 0.435 11.612747867339111 10.47996014336979 8.533551232708323 1 0 0
11553 3851 12 0.435 14.999716614781505 11.144633098478414 7.063421922512808 0 0 1
7778 2593 10 0.265 11.996777329705274 11.179918410172437 2.992015487719111 0 0 0
7777 2593 11 -0.7 10.949571002032409 11.251267804714002 3.970328652581262 0 0 0
3218 1073 10 0.265 14.651498605393925 15.816391461125939 4.741072589695196 0 1 0
2858 953 10 0.265 11.320129511719296 16.12065038564729 3.123964831463579 0 0 0
11551 3851 11 -0.7 15.496214659854548 12.098364199516663 6.633118115191643 0 0 1
8421 2807 12 0.435 15.187948043705767 13.422218201648535 7.6441261287016955 -1 0 0
8419 2807 11 -0.7 14.894966518153158 14.318901267498973 7.950854248553232 -1 0 0
11552 3851 10 0.265 15.609792063824255 12.086617751572335 5.217079211213013 0 0 1
9823 3275 11 -0.7 26.518974797576668 11.108025060309181 8.824975996560417 0 1 0
6139 2047 11 -0.7 9.80355949635559 13.082340348382948 0.28766521213218715 0 1 0
8651 2884 10 0.265 16.38793297514688 9.817425294360541 1.5742464164909098 1 1 0
9246 3082 12 0.435 13.785540061947074 8.840250255327126 0.6065411587631007 -1 1 2
2027 676 10 0.265 9.40411978583642 9.44113482815801 0.04347989695264936 1 0 1
2028 676 12 0.435 11.227682049916059 9.971788715593915 0.0652986475111299 1 0 1
2026 676 11 -0.7 10.470680518560432 10.201438940494766 -0.5150146474463637 1 0 1
8944 2982 11 -0.7 8.653548315543889 11.278328005488007 11.56572427577656 0 0 -1
8650 2884 11 -0.7 15.800912564777125 8.966490743226586 0.6019532797998121 1 1 0
2216 739 10 0.265 33.47688038497703 0.23500770260710724 4.0998564623684635 0 0 0
8946 2982 12 0.435 8.836945803460154 11.158885084952265 12.53654142195582 0 0 -1
8652 2884 12 0.435 16.49034869210877 8.795299761276642 -0.011174313262350874 1 1 0
9247 3083 11 -0.7 16.868819815148488 14.626367073995333 0.1280294096514277 1 0 0
6208 2070 11 -0.7 22.07902053048545 8.920209688552113 5.491229206939148 1 0 0
5043 1681 12 0.435 12.953127255328482 1.7208521758767568 11.90664980685406 0 1 1
9203 3068 10 0.265 18.31105234599407 13.284477078939013 11.524756207638749 0 0 0
15257 4097 5 0.1381 24.907955219105514 8.786820693664062 6.35319929875022 0 1 0
7533 2511 12 0.435 19.981805693044752 10.720640724728762 9.246405472223719 0 1 0
3569 1190 10 0.265 30.46968813981523 14.772316739217796 5.349108316090538 0 1 0
1026 342 12 0.435 19.687856321485317 8.624774102707061 10.6901736063682 0 1 0
7531 2511 11 -0.7 19.34624802741615 10.070101388332349 9.549002525158704 0 1 0
13967 4097 7 -0.4606 20.24449392609332 8.253736487980031 0.731944973251251 0 1 0
6209 2070 10 0.265 21.294435820183836 9.134204448922173 6.6827042500233444 1 0 0
6210 2070 12 0.435 21.37700670979029 8.808917441545281 4.796930396275054 1 0 0
7532 2511 10 0.265 18.204296949896396 10.298533143356043 8.670693158460821 0 1 0
995 332 10 0.265 21.310690858234384 15.841258465595473 0.4803143405832517 0 0 1
1777 593 11 -0.7 19.22749448563239 7.821135277624348 4.1935194412534 1 1 0
1778 593 10 0.265 18.257311015449748 8.635187653684552 4.81234951199241 1 1 0
10853 3618 10 0.265 23.866257749895432 12.089480208693239 6.751087168824712 0 1 0
10852 3618 11 -0.7 24.088404222301495 12.374071354064323 8.12456623449941 0 1 0
7957 2653 11 -0.7 21.352200227283376 12.293717028222805 8.913444011592503 0 2 1
9126 3042 12 0.435 20.247568996384803 13.348537447344102 4.876112636689696 0 1 0
13925 4097 9 -0.4203 20.38302522835324 13.057509176609265 4.220319519799988 0 1 0
13916 4097 3 0 20.7086741338653 12.96817571644735 3.7442648183062914 0 1 0
9124 3042 11 -0.7 19.977795361872747 13.771151030770495 5.929692691777599 0 1 0
13913 4097 6 0.4375 20.42588677540371 12.437521959048645 2.483548268117116 0 1 0
13919 4097 5 0.1381 18.279805544518815 12.480899837414745 2.3006001909464664 0 1 0
9125 3042 10 0.265 18.800180310921316 13.065209918008534 6.273114012989698 0 1 0
13915 4097 7 -0.4606 19.114965129700654 11.855409976588767 2.1241355810876743 0 1 0
13918 4097 5 0.1381 19.051157347371493 11.640061206868705 1.0751163676264672 0 1 0
13923 4097 5 0.1381 18.96751364179939 10.972789452112496 2.812527635159587 0 1 0
13914 4097 2 -0.06619999999999999 22.066451591377596 13.251898807955643 3.6759808727035925 0 1 0
13917 4097 4 0.1141 22.550215676177565 13.664803345521523 4.529327741140194 0 1 0
13921 4097 3 0 21.47278463739696 12.51798583967862 1.6922263162218338 0 1 0
13924 4097 9 -0.4203 21.61100956034212 12.471603029381178 1.144054309358768 0 1 0
2955 985 12 0.435 21.59125225638859 12.387594754290932 0.3901533041566983 0 1 0
7958 2653 10 0.265 20.988122457189316 13.592873690987137 9.296712381758796 0 2 1
7959 2653 12 0.435 22.311729507917676 12.329542222320418 8.530017784781457 0 2 1
13920 4097 2 -0.06619999999999999 22.520346195765384 13.028570206657854 2.4827997166937625 0 1 0
13922 4097 4 0.1141 23.551676269813434 13.128779022769601 1.9961848196972825 0 1 0
10854 3618 12 0.435 24.994885953206133 12.030090992862535 8.421959274882637 0 1 0
7563 2521 12 0.435 21.221756714707336 15.026018374536925 7.156438900857814 -2 1 1
3374 1125 10 0.265 22.984131975270028 9.771398248489742 10.407915545947144 1 0 1
3373 1125 11 -0.7 21.915853101455863 10.189401293821776 11.242029186572333 1 0 1
6014 2005 10 0.265 25.158278544216824 9.984704235163935 3.6867858520017998 0 0 0
9288 3096 12 0.435 18.95263502210345 15.41944250565366 5.033360579424447 1 0 0
9286 3096 11 -0.7 18.312594860273013 15.874370747123958 4.454083101979089 1 0 0
9287 3096 10 0.265 18.632718833502473 15.383535182633567 3.1108431192884827 1 0 0
3375 1125 12 0.435 21.35246438604206 10.80355812991145 10.79218926273928 1 0 1
6385 2129 11 -0.7 25.2232199694943 8.777212170674693 0.3071994403775235 0 1 0
6387 2129 12 0.435 25.40536795286196 9.523048402619006 1.0206716007421677 0 1 0
13971 4097 5 0.1381 19.903198680089748 9.182431420113991 0.3603424187941051 0 1 0
7562 2521 10 0.265 22.906203990458398 15.845917217889532 6.884670974202991 -2 1 1
10040 3347 10 0.265 -0.15852283885514767 1.5784548407066048 11.55740565430899 0 0 1
8514 2838 12 0.435 -0.5477361343112364 9.207651618534824 2.4161796459143328 1 0 1
7561 2521 11 -0.7 21.58421860154195 15.93147233298431 7.347560298892864 -2 1 1
10604 3535 10 0.265 31.52157597884555 11.33784265034022 3.570075501749617 1 1 0
7871 2624 10 0.265 15.44288853946593 15.60476609302442 12.610660339325515 0 1 0
3570 1190 12 0.435 29.315888035077784 13.439843420281186 6.291219846677361 0 1 0
2804 935 10 0.265 22.711398282978923 15.751650881337337 12.5803505123467 1 1 0
2510 837 10 0.265 33.049444732128684 9.539743654169389 6.928837950455894 -1 1 0
15254 4097 7 -0.4606 25.725380125620237 8.192604258702135 6.85841670081864 0 1 0
9737 3246 10 0.265 26.30814943938808 14.555113646814691 10.991835699028618 0 0 0
6013 2005 11 -0.7 25.561385626379597 10.613122589295804 2.460867462200426 0 0 0
9194 3065 10 0.265 28.99281623198737 14.983887215990839 0.601110284102697 1 1 1
15264 4097 9 -0.4203 27.728511494651464 7.843314143874858 5.3074804342688005 0 1 0
15255 4097 3 0 27.850178703824522 8.284334699769433 5.576768094848606 0 1 0
15252 4097 6 0.4375 27.057030693904906 8.747070824674147 6.544675693131845 0 1 0
12131 4044 10 0.265 30.622325592732167 11.959671457679924 11.375894015943723 -1 0 1
9193 3065 11 -0.7 27.722466386263513 15.526502674684448 0.9256453877557562 1 1 1
9738 3246 12 0.435 26.51482384334983 15.186090687474184 12.86869497953205 0 0 0
9736 3246 11 -0.7 26.701566218403205 15.58273095483554 11.95671116944796 0 0 0
9824 3275 10 0.265 27.10133140603836 11.22585143118567 10.180255973272187 0 1 0
15256 4097 4 0.1141 29.714439081771026 9.075716844142583 4.73543566190811 0 1 0
15253 4097 2 -0.06619999999999999 28.997902118970202 9.109109914229862 5.592394019275067 0 1 0
10603 3535 11 -0.7 30.902270747184833 12.637926200998566 3.186505057929263 1 1 0
3042 1014 12 0.435 26.64485093551983 13.291736061935355 4.779138253372612 0 1 0
6015 2005 12 0.435 25.717028230256716 11.583762334732274 2.7133169917996223 0 0 0
3040 1014 11 -0.7 25.88860508567172 13.204029473674836 4.160473789404746 0 1 0
6386 2129 10 0.265 23.837592851889227 8.387121826634486 0.4717674786740398 0 1 0
12130 4044 11 -0.7 31.563890918310573 12.825396288203047 12.017189373013872 -1 0 1
3692 1231 10 0.265 31.957880435499167 15.20844640810609 9.110188714213809 0 1 -1
15259 4097 2 -0.06619999999999999 28.886592162856356 10.020170644520013 6.628322389871083 0 1 0
10655 3552 10 0.265 26.680221697627164 14.075755926422879 7.232544868055339 0 -1 0
15260 4097 3 0 27.675590276589652 9.764542927230313 7.2088304673916515 0 1 0
15263 4097 9 -0.4203 27.468120945400468 10.162237823355381 7.57921620671531 0 1 0
3041 1014 10 0.265 25.817112617452604 14.449820416541899 3.4292895331240474 0 1 0